 Gaussian 09, Revision D.01,
 Gaussian 09:  EM64L-G09RevD.01 24-Apr-2013

 ----------------------------------------
 # opt freq b3lyp/6-31g geom=connectivity
 ----------------------------------------

 -------------------
 Title Card Required
 -------------------
 Symbolic Z-matrix:
 Charge =  0 Multiplicity = 1

 SCF Done:  E(RB3LYP) =  -232.197804452     A.U. after   11 cycles
 SCF Done:  E(RB3LYP) =  -232.198695989     A.U. after    9 cycles
 SCF Done:  E(RB3LYP) =  -232.198697979     A.U. after    7 cycles
 Optimization completed.
    -- Stationary point found.
 Normal termination of Gaussian 09 at Tue May  1 18:01:57 2018.

 -----------------------------------------------------------------
 #N Geom=AllCheck Guess=TCheck SCRF=Check GenChk RB3LYP/6-31G Freq
 -----------------------------------------------------------------

 Structure from the checkpoint file:  "c6h6.chk"
 -------------------
 Title Card Required
 -------------------
 Charge =  0 Multiplicity = 1

                         Standard orientation:
 ---------------------------------------------------------------------
 Center     Atomic      Atomic             Coordinates (Angstroms)
 Number     Number       Type             X           Y           Z
 ---------------------------------------------------------------------
      1          6           0        0.111903   -1.395889    0.000001
      2          6           0        1.264946   -0.601020   -0.000020
      3          6           0        1.153038    0.794884    0.000023
      4          6           0       -0.111955    1.395885   -0.000003
      5          6           0       -1.264923    0.601067   -0.000018
      6          6           0       -1.153009   -0.794927    0.000015
      7          1           0        0.198744   -2.478147    0.000005
      8          1           0        2.245513   -1.067178   -0.000025
      9          1           0        2.046861    1.411236    0.000021
     10          1           0       -0.198656    2.478154   -0.000002
     11          1           0       -2.245549    1.067101   -0.000011
     12          1           0       -2.046911   -1.411163    0.000025
 ---------------------------------------------------------------------

 SCF Done:  E(RB3LYP) =  -232.198697979     A.U. after    1 cycles

 The electronic state is 1-A.
 Alpha  occ. eigenvalues --  -10.18567 -10.18547 -10.18547 -10.18502 -10.18501
 Alpha  occ. eigenvalues --  -10.18482  -0.85119  -0.74390  -0.74388  -0.60111
 Alpha  occ. eigenvalues --   -0.60110  -0.52265  -0.46059  -0.44369  -0.42162
 Alpha  occ. eigenvalues --   -0.42159  -0.36146  -0.34233  -0.34231  -0.24821
 Alpha  occ. eigenvalues --   -0.24820
 Alpha virt. eigenvalues --    0.00375   0.00376   0.09269   0.14389   0.14389
 Alpha virt. eigenvalues --    0.16045   0.18104   0.18105   0.19012   0.30305
 Alpha virt. eigenvalues --    0.30306   0.32087   0.32087   0.49719   0.52624

 Mulliken charges:
               1
     1  C   -0.124720
     2  C   -0.124624
     3  C   -0.124675
     4  C   -0.124720
     5  C   -0.124624
     6  C   -0.124675
     7  H    0.124661
     8  H    0.124670
     9  H    0.124688
    10  H    0.124661
    11  H    0.124670
    12  H    0.124688
 Sum of Mulliken charges =   0.00000

 Dipole moment (field-independent basis, Debye):
    X=              0.0000    Y=              0.0000    Z=              0.0000  Tot=              0.0000
 Quadrupole moment (field-independent basis, Debye-Ang):
   XX=            -31.5729   YY=            -31.5742   ZZ=            -38.9107
   XY=              0.0001   XZ=              0.0000   YZ=              0.0000

  Exact polarizability:  70.627  -0.001  70.624   0.000   0.000  18.737
 Approx polarizability: 115.845   0.000 115.836   0.000   0.000  23.884

                      1                      2                      3
                      A                      A                      A
 Frequencies --    421.9874               422.6067               639.5708
 Red. masses --      2.8477                 2.8502                 6.1505
 Frc consts  --      0.2988                 0.2999                 1.4823
 IR Inten    --      0.0000                 0.0000                 0.0000

                      4                      5                      6
                      A                      A                      A
 Frequencies --    639.7258               706.5249               737.9677
 Red. masses --      6.1510                 1.0848                 3.3639
 Frc consts  --      1.4831                 0.3191                 1.0794
 IR Inten    --      0.0000               102.6354                 0.0000

                      7                      8                      9
                      A                      A                      A
 Frequencies --    884.4620               885.2176              1000.8266
 Red. masses --      1.2469                 1.2469                 1.3804
 Frc consts  --      0.5747                 0.5757                 0.8147
 IR Inten    --      0.0000                 0.0000                 0.0002

                     10                     11                     12
                      A                      A                      A
 Frequencies --   1001.4956              1021.9787              1045.4092
 Red. masses --      1.3799                 5.9724                 1.2849
 Frc consts  --      0.8154                 3.6752                 0.8273
 IR Inten    --      0.0002                 0.0000                 0.0000

                     13                     14                     15
                      A                      A                      A
 Frequencies --   1048.9598              1077.2140              1077.6555
 Red. masses --      6.5386                 1.7707                 1.7718
 Frc consts  --      4.2389                 1.2106                 1.2123
 IR Inten    --      0.0000                 3.8708                 3.8720

                     16                     17                     18
                      A                      A                      A
 Frequencies --   1218.0798              1231.8478              1232.1891
 Red. masses --      1.0536                 1.1373                 1.1376
 Frc consts  --      0.9210                 1.0168                 1.0177
 IR Inten    --      0.0000                 0.0000                 0.0000

                     19                     20                     21
                      A                      A                      A
 Frequencies --   1366.3207              1420.1913              1541.0808
 Red. masses --      7.9113                 1.2469                 1.9240
 Frc consts  --      8.7017                 1.4817                 2.6922
 IR Inten    --      0.0000                 0.0000                 8.6628

                     22                     23                     24
                      A                      A                      A
 Frequencies --   1541.6175              1653.8720              1654.0513
 Red. masses --      1.9225                 5.2652                 5.2718
 Frc consts  --      2.6920                 8.4853                 8.4978
 IR Inten    --      8.6619                 0.0000                 0.0000

                     25                     26                     27
                      A                      A                      A
 Frequencies --   3184.3156              3194.0622              3194.4684
 Red. masses --      1.0839                 1.0874                 1.0874
 Frc consts  --      6.4752                 6.5365                 6.5381
 IR Inten    --      0.0056                 0.0000                 0.0000

                     28                     29                     30
                      A                      A                      A
 Frequencies --   3212.2787              3212.6376              3226.7271
 Red. masses --      1.0955                 1.0955                 1.1012
 Frc consts  --      6.6600                 6.6615                 6.7550
 IR Inten    --     56.3989                56.4110                 0.0000

 - Thermochemistry -
 -------------------
 Temperature   298.150 Kelvin.  Pressure   1.00000 Atm.
 Atom     1 has atomic number  6 and mass  12.00000

 Molecular mass:    78.04695 amu.
 Principal axes and moments of inertia in atomic units:
                           1         2         3
     Eigenvalues --   318.85026 318.88744 637.73770
           X            0.99964  -0.02671   0.00000
           Y            0.02671   0.99964   0.00000
           Z            0.00000   0.00000   1.00000
 This molecule is an asymmetric top.
 Rotational symmetry number  1.
 Rotational temperatures (Kelvin)      0.27164     0.27161     0.13581
 Rotational constants (GHZ):           5.66015     5.65949     2.82991
 Zero-point vibrational energy     267337.5 (Joules/Mol)
                                   63.89520 (Kcal/Mol)
 Warning -- explicit consideration of   2 degrees of freedom as
           vibrations may cause significant error
 Vibrational temperatures:    607.14   608.04   920.20   920.42  1016.53
          (Kelvin)           1061.77  1272.54  1273.63  1439.96  1440.93
                             1470.40  1504.11  1509.22  1549.87  1550.50
                             1752.54  1772.35  1772.84  1965.83  2043.34
                             2217.27  2218.04  2379.55  2379.81  4581.51
                             4595.54  4596.12  4621.75  4622.26  4642.53

 Zero-point correction=                           0.101823 (Hartree/Particle)
 Thermal correction to Energy=                    0.106131
 Thermal correction to Enthalpy=                  0.107075
 Thermal correction to Gibbs Free Energy=         0.074387
 Sum of electronic and zero-point Energies=           -232.096874
 Sum of electronic and thermal Energies=              -232.092567
 Sum of electronic and thermal Enthalpies=            -232.091623
 Sum of electronic and thermal Free Energies=         -232.124311

                     E (Thermal)             CV                S
                      KCal/Mol        Cal/Mol-Kelvin    Cal/Mol-Kelvin
 Total                   66.598             16.680             68.798
 Electronic               0.000              0.000              0.000
 Translational            0.889              2.981             38.979
 Rotational               0.889              2.981             25.675
 Vibrational             64.821             10.718              4.143
 Vibration     1          0.784              1.422              0.885
 Vibration     2          0.785              1.421              0.883

 Optimization completed.
    -- Stationary point found.
 Normal termination of Gaussian 09 at Tue May  1 18:03:04 2018.
