 Gaussian 09, Revision D.01,
 Gaussian 09:  EM64L-G09RevD.01 24-Apr-2013

 ------------------------------------------------
 # opt=modredundant b3lyp/6-31g geom=connectivity
 ------------------------------------------------

 -------------------
 Title Card Required
 -------------------
 Symbolic Z-matrix:
 Charge =  0 Multiplicity = 1

 SCF Done:  E(RB3LYP) =  -1.15626566418     A.U. after    6 cycles
 Optimization completed.
    -- Stationary point found.
 SCF Done:  E(RB3LYP) =  -1.15927634423     A.U. after    6 cycles
 Optimization completed.
 SCF Done:  E(RB3LYP) =  -1.16196575417     A.U. after    6 cycles
 SCF Done:  E(RB3LYP) =  -1.16435457760     A.U. after    6 cycles
 SCF Done:  E(RB3LYP) =  -1.16646206791     A.U. after    6 cycles
 SCF Done:  E(RB3LYP) =  -1.16830616103     A.U. after    6 cycles
 SCF Done:  E(RB3LYP) =  -1.16990357907     A.U. after    6 cycles
 SCF Done:  E(RB3LYP) =  -1.17126992619     A.U. after    6 cycles
 SCF Done:  E(RB3LYP) =  -1.17241977635     A.U. after    6 cycles
 SCF Done:  E(RB3LYP) =  -1.17336675217     A.U. after    6 cycles
 SCF Done:  E(RB3LYP) =  -1.14663750574     A.U. after    5 cycles
 SCF Done:  E(RB3LYP) =  -1.14496406625     A.U. after    5 cycles
 SCF Done:  E(RB3LYP) =  -1.14327326163     A.U. after    5 cycles
 SCF Done:  E(RB3LYP) =  -1.14156673160     A.U. after    5 cycles
 SCF Done:  E(RB3LYP) =  -1.13984602498     A.U. after    5 cycles
 SCF Done:  E(RB3LYP) =  -1.13811260466     A.U. after    5 cycles
 SCF Done:  E(RB3LYP) =  -1.13636785217     A.U. after    5 cycles
 SCF Done:  E(RB3LYP) =  -1.13461307216     A.U. after    5 cycles
 SCF Done:  E(RB3LYP) =  -1.13284949670     A.U. after    5 cycles
    -- Stationary point found.
 SCF Done:  E(RB3LYP) =  -1.13107828939     A.U. after    5 cycles
 Optimization completed.
    -- Stationary point found.

                         Standard orientation:
 ---------------------------------------------------------------------
 Center     Atomic      Atomic             Coordinates (Angstroms)
 Number     Number       Type             X           Y           Z
 ---------------------------------------------------------------------
      1          1           0        0.000000    0.000000    0.550000
      2          1           0        0.000000    0.000000   -0.550000
 ---------------------------------------------------------------------

 The electronic state is 1-SGG.
 Alpha  occ. eigenvalues --   -0.37524
 Alpha virt. eigenvalues --   -0.00104   0.73328   0.85019

 Mulliken charges:
               1
     1  H    0.000000
     2  H    0.000000
 Sum of Mulliken charges =   0.00000

 Dipole moment (field-independent basis, Debye):
    X=              0.0000    Y=              0.0000    Z=              0.0000  Tot=              0.0000
 Quadrupole moment (field-independent basis, Debye-Ang):
   XX=             -2.4222   YY=             -2.4222   ZZ=             -1.6077
   XY=              0.0000   XZ=              0.0000   YZ=              0.0000

 Normal termination of Gaussian 09 at Tue May  1 18:25:54 2018.
