 Gaussian 09, Revision D.01,
 Gaussian 09:  EM64L-G09RevD.01 24-Apr-2013

 ------------------------------------
 # freq b3lyp/6-31g geom=connectivity
 ------------------------------------

 -------------------
 Title Card Required
 -------------------
 Symbolic Z-matrix:
 Charge =  0 Multiplicity = 1

                         Standard orientation:
 ---------------------------------------------------------------------
 Center     Atomic      Atomic             Coordinates (Angstroms)
 Number     Number       Type             X           Y           Z
 ---------------------------------------------------------------------
      1          6           0        0.000000    0.000000   -0.496871
      2          1           0        0.000000    0.000000   -1.566871
      3          7           0        0.000000    0.000000    0.649729
 ---------------------------------------------------------------------

 SCF Done:  E(RB3LYP) =  -93.3913665412     A.U. after   11 cycles

 The electronic state is 1-SG.
 Alpha  occ. eigenvalues --  -14.36998 -10.24410  -0.95372  -0.60622  -0.37434
 Alpha  occ. eigenvalues --   -0.37091  -0.37091
 Alpha virt. eigenvalues --    0.02040   0.02040   0.08086   0.27938   0.52105
 Alpha virt. eigenvalues --    0.52105   0.65641   0.72254   0.77136   0.77136
 Alpha virt. eigenvalues --    0.83480   1.11909   1.56510

 Mulliken charges:
               1
     1  C   -0.023796
     2  H    0.254146
     3  N   -0.230351
 Sum of Mulliken charges =   0.00000

 Dipole moment (field-independent basis, Debye):
    X=              0.0000    Y=              0.0000    Z=             -2.9337  Tot=              2.9337
 Quadrupole moment (field-independent basis, Debye-Ang):
   XX=            -11.3567   YY=            -11.3567   ZZ=            -10.0485
   XY=              0.0000   XZ=              0.0000   YZ=              0.0000

  Exact polarizability:   6.899   0.000   6.899   0.000   0.000  19.722
 Approx polarizability:   7.829   0.000   7.829   0.000   0.000  38.861

                      1                      2                      3
                     PI                     PI                     SG
 Frequencies --    805.4650               805.4650              2291.7738
 Red. masses --      1.3458                 1.3458                 4.6334
 Frc consts  --      0.5144                 0.5144                14.3382
 IR Inten    --     54.8053                54.8053                 3.3412

                      4
                     SG
 Frequencies --   3480.6468
 Red. masses --      1.2194
 Frc consts  --      8.7038
 IR Inten    --     56.0009

 - Thermochemistry -
 -------------------
 Temperature   298.150 Kelvin.  Pressure   1.00000 Atm.
 Atom     1 has atomic number  6 and mass  12.00000

 Molecular mass:    27.01090 amu.
 Principal axes and moments of inertia in atomic units:
                           1         2         3
     Eigenvalues --     0.00000  40.20492  40.20492
           X            0.00000   1.00000   0.00000
           Y            0.00000   0.00000   1.00000
           Z            1.00000   0.00000   0.00000
 This molecule is a prolate symmetric top.
 Rotational symmetry number  1.
 Rotational temperature (Kelvin)      2.15431
 Rotational constant (GHZ):          44.888563
 Zero-point vibrational energy      44162.2 (Joules/Mol)
                                   10.55503 (Kcal/Mol)
 Vibrational temperatures:   1158.88  1158.88  3297.35  5007.87
          (Kelvin)

 Zero-point correction=                           0.016821 (Hartree/Particle)
 Thermal correction to Energy=                    0.019335
 Thermal correction to Enthalpy=                  0.020279
 Thermal correction to Gibbs Free Energy=        -0.002531
 Sum of electronic and zero-point Energies=            -93.374546
 Sum of electronic and thermal Energies=               -93.372032
 Sum of electronic and thermal Enthalpies=             -93.371088
 Sum of electronic and thermal Free Energies=          -93.393897

                     E (Thermal)             CV                S
                      KCal/Mol        Cal/Mol-Kelvin    Cal/Mol-Kelvin
 Total                   12.133              6.255             48.007
 Electronic               0.000              0.000              0.000
 Translational            0.889              2.981             35.816
 Rotational               0.592              1.987             11.784
 Vibrational             10.652              1.287              0.406

 Normal termination of Gaussian 09 at Tue May  1 17:07:40 2018.
