 Gaussian 09, Revision D.01,
 Gaussian 09:  EM64L-G09RevD.01 24-Apr-2013

 -----------------------------------
 # opt b3lyp/6-31g geom=connectivity
 -----------------------------------

 -------------------
 Title Card Required
 -------------------
 Symbolic Z-matrix:
 Charge =  0 Multiplicity = 1

 SCF Done:  E(RB3LYP) =  -93.3913665412     A.U. after   11 cycles
 SCF Done:  E(RB3LYP) =  -93.3924853524     A.U. after   10 cycles
 SCF Done:  E(RB3LYP) =  -93.3924882431     A.U. after    7 cycles
 Optimization completed.
    -- Stationary point found.

                         Standard orientation:
 ---------------------------------------------------------------------
 Center     Atomic      Atomic             Coordinates (Angstroms)
 Number     Number       Type             X           Y           Z
 ---------------------------------------------------------------------
      1          6           0        0.000000    0.000000   -0.508086
      2          1           0        0.000000    0.000000   -1.574734
      3          7           0        0.000000    0.000000    0.660465
 ---------------------------------------------------------------------

 The electronic state is 1-SG.
 Alpha  occ. eigenvalues --  -14.37538 -10.24894  -0.94497  -0.60938  -0.37688
 Alpha  occ. eigenvalues --   -0.36609  -0.36609
 Alpha virt. eigenvalues --    0.01208   0.01208   0.08015   0.27985   0.52253
 Alpha virt. eigenvalues --    0.52253   0.65818   0.71465   0.76774   0.76774
 Alpha virt. eigenvalues --    0.82725   1.08690   1.55175

 Mulliken charges:
               1
     1  C   -0.012162
     2  H    0.255562
     3  N   -0.243400
 Sum of Mulliken charges =   0.00000

 Dipole moment (field-independent basis, Debye):
    X=              0.0000    Y=              0.0000    Z=             -2.9319  Tot=              2.9319
 Quadrupole moment (field-independent basis, Debye-Ang):
   XX=            -11.4285   YY=            -11.4285   ZZ=            -10.0356
   XY=              0.0000   XZ=              0.0000   YZ=              0.0000

 Normal termination of Gaussian 09 at Tue May  1 16:50:29 2018.
